+ 0.1 0 2 tcp 40 ------- 1 0.0 3.0 0 0
- 0.1 0 2 tcp 40 ------- 1 0.0 3.0 0 0
+ 0.1 1 2 cbr 210 ------- 2 1.0 3.1 0 1
- 0.1 1 2 cbr 210 ------- 2 1.0 3.1 0 1
+ 0.10375 1 2 cbr 210 ------- 2 1.0 3.1 1 2
- 0.10375 1 2 cbr 210 ------- 2 1.0 3.1 1 2
+ 0.1075 1 2 cbr 210 ------- 2 1.0 3.1 2 3
- 0.1075 1 2 cbr 210 ------- 2 1.0 3.1 2 3
r 0.108032 0 2 tcp 40 ------- 1 0.0 3.0 0 0
+ 0.108032 2 3 tcp 40 ------- 1 0.0 3.0 0 0
- 0.108032 2 3 tcp 40 ------- 1 0.0 3.0 0 0
r 0.108168 1 2 cbr 210 ------- 2 1.0 3.1 0 1
+ 0.108168 2 3 cbr 210 ------- 2 1.0 3.1 0 1
- 0.108168 2 3 cbr 210 ------- 2 1.0 3.1 0 1
r 0.110064 2 3 tcp 40 ------- 1 0.0 3.0 0 0
+ 0.110064 3 2 ack 40 ------- 1 3.0 0.0 0 4
- 0.110064 3 2 ack 40 ------- 1 3.0 0.0 0 4
r 0.110336 2 3 cbr 210 ------- 2 1.0 3.1 0 1
+ 0.11125 1 2 cbr 210 ------- 2 1.0 3.1 3 5
- 0.11125 1 2 cbr 210 ------- 2 1.0 3.1 3 5
r 0.111918 1 2 cbr 210 ------- 2 1.0 3.1 1 2
+ 0.111918 2 3 cbr 210 ------- 2 1.0 3.1 1 2
- 0.111918 2 3 cbr 210 ------- 2 1.0 3.1 1 2
r 0.112096 3 2 ack 40 ------- 1 3.0 0.0 0 4
+ 0.112096 2 0 ack 40 ------- 1 3.0 0.0 0 4
- 0.112096 2 0 ack 40 ------- 1 3.0 0.0 0 4
r 0.114086 2 3 cbr 210 ------- 2 1.0 3.1 1 2
+ 0.115 1 2 cbr 210 ------- 2 1.0 3.1 4 6
- 0.115 1 2 cbr 210 ------- 2 1.0 3.1 4 6
r 0.115668 1 2 cbr 210 ------- 2 1.0 3.1 2 3
+ 0.115668 2 3 cbr 210 ------- 2 1.0 3.1 2 3
- 0.115668 2 3 cbr 210 ------- 2 1.0 3.1 2 3
r 0.117836 2 3 cbr 210 ------- 2 1.0 3.1 2 3
+ 0.11875 1 2 cbr 210 ------- 2 1.0 3.1 5 7
- 0.11875 1 2 cbr 210 ------- 2 1.0 3.1 5 7
r 0.119418 1 2 cbr 210 ------- 2 1.0 3.1 3 5
+ 0.119418 2 3 cbr 210 ------- 2 1.0 3.1 3 5
- 0.119418 2 3 cbr 210 ------- 2 1.0 3.1 3 5
r 0.120128 2 0 ack 40 ------- 1 3.0 0.0 0 4
+ 0.120128 0 2 tcp 1040 ------- 1 0.0 3.0 1 8
- 0.120128 0 2 tcp 1040 ------- 1 0.0 3.0 1 8
+ 0.120128 0 2 tcp 1040 ------- 1 0.0 3.0 2 9
- 0.12096 0 2 tcp 1040 ------- 1 0.0 3.0 2 9
r 0.121586 2 3 cbr 210 ------- 2 1.0 3.1 3 5
+ 0.1225 1 2 cbr 210 ------- 2 1.0 3.1 6 10
- 0.1225 1 2 cbr 210 ------- 2 1.0 3.1 6 10
r 0.123168 1 2 cbr 210 ------- 2 1.0 3.1 4 6
+ 0.123168 2 3 cbr 210 ------- 2 1.0 3.1 4 6
- 0.123168 2 3 cbr 210 ------- 2 1.0 3.1 4 6
r 0.125336 2 3 cbr 210 ------- 2 1.0 3.1 4 6
+ 0.12625 1 2 cbr 210 ------- 2 1.0 3.1 7 11
- 0.12625 1 2 cbr 210 ------- 2 1.0 3.1 7 11
r 0.126918 1 2 cbr 210 ------- 2 1.0 3.1 5 7
+ 0.126918 2 3 cbr 210 ------- 2 1.0 3.1 5 7
- 0.126918 2 3 cbr 210 ------- 2 1.0 3.1 5 7
r 0.12896 0 2 tcp 1040 ------- 1 0.0 3.0 1 8
+ 0.12896 2 3 tcp 1040 ------- 1 0.0 3.0 1 8
- 0.12896 2 3 tcp 1040 ------- 1 0.0 3.0 1 8
r 0.129086 2 3 cbr 210 ------- 2 1.0 3.1 5 7
r 0.129792 0 2 tcp 1040 ------- 1 0.0 3.0 2 9
+ 0.129792 2 3 tcp 1040 ------- 1 0.0 3.0 2 9
- 0.129792 2 3 tcp 1040 ------- 1 0.0 3.0 2 9
+ 0.13 1 2 cbr 210 ------- 2 1.0 3.1 8 12
- 0.13 1 2 cbr 210 ------- 2 1.0 3.1 8 12
r 0.130668 1 2 cbr 210 ------- 2 1.0 3.1 6 10
+ 0.130668 2 3 cbr 210 ------- 2 1.0 3.1 6 10
- 0.130668 2 3 cbr 210 ------- 2 1.0 3.1 6 10
r 0.131792 2 3 tcp 1040 ------- 1 0.0 3.0 1 8
+ 0.131792 3 2 ack 40 ------- 1 3.0 0.0 1 13
- 0.131792 3 2 ack 40 ------- 1 3.0 0.0 1 13
r 0.132624 2 3 tcp 1040 ------- 1 0.0 3.0 2 9
+ 0.132624 3 2 ack 40 ------- 1 3.0 0.0 2 14
- 0.132624 3 2 ack 40 ------- 1 3.0 0.0 2 14
r 0.132836 2 3 cbr 210 ------- 2 1.0 3.1 6 10
+ 0.13375 1 2 cbr 210 ------- 2 1.0 3.1 9 15
- 0.13375 1 2 cbr 210 ------- 2 1.0 3.1 9 15
r 0.133824 3 2 ack 40 ------- 1 3.0 0.0 1 13
+ 0.133824 2 0 ack 40 ------- 1 3.0 0.0 1 13
- 0.133824 2 0 ack 40 ------- 1 3.0 0.0 1 13
r 0.134418 1 2 cbr 210 ------- 2 1.0 3.1 7 11
+ 0.134418 2 3 cbr 210 ------- 2 1.0 3.1 7 11
- 0.134418 2 3 cbr 210 ------- 2 1.0 3.1 7 11
r 0.134656 3 2 ack 40 ------- 1 3.0 0.0 2 14
+ 0.134656 2 0 ack 40 ------- 1 3.0 0.0 2 14
- 0.134656 2 0 ack 40 ------- 1 3.0 0.0 2 14
r 0.136586 2 3 cbr 210 ------- 2 1.0 3.1 7 11
+ 0.1375 1 2 cbr 210 ------- 2 1.0 3.1 10 16
- 0.1375 1 2 cbr 210 ------- 2 1.0 3.1 10 16
r 0.138168 1 2 cbr 210 ------- 2 1.0 3.1 8 12
+ 0.138168 2 3 cbr 210 ------- 2 1.0 3.1 8 12
- 0.138168 2 3 cbr 210 ------- 2 1.0 3.1 8 12
r 0.140336 2 3 cbr 210 ------- 2 1.0 3.1 8 12
+ 0.14125 1 2 cbr 210 ------- 2 1.0 3.1 11 17
- 0.14125 1 2 cbr 210 ------- 2 1.0 3.1 11 17
r 0.141856 2 0 ack 40 ------- 1 3.0 0.0 1 13
+ 0.141856 0 2 tcp 1040 ------- 1 0.0 3.0 3 18
- 0.141856 0 2 tcp 1040 ------- 1 0.0 3.0 3 18
+ 0.141856 0 2 tcp 1040 ------- 1 0.0 3.0 4 19
r 0.141918 1 2 cbr 210 ------- 2 1.0 3.1 9 15
+ 0.141918 2 3 cbr 210 ------- 2 1.0 3.1 9 15
- 0.141918 2 3 cbr 210 ------- 2 1.0 3.1 9 15
r 0.142688 2 0 ack 40 ------- 1 3.0 0.0 2 14
+ 0.142688 0 2 tcp 1040 ------- 1 0.0 3.0 5 20
+ 0.142688 0 2 tcp 1040 ------- 1 0.0 3.0 6 21
d 0.142688 0 2 tcp 1040 ------- 1 0.0 3.0 6 21
- 0.142688 0 2 tcp 1040 ------- 1 0.0 3.0 4 19
- 0.14352 0 2 tcp 1040 ------- 1 0.0 3.0 5 20
r 0.144086 2 3 cbr 210 ------- 2 1.0 3.1 9 15
+ 0.145 1 2 cbr 210 ------- 2 1.0 3.1 12 22
- 0.145 1 2 cbr 210 ------- 2 1.0 3.1 12 22
r 0.145668 1 2 cbr 210 ------- 2 1.0 3.1 10 16
+ 0.145668 2 3 cbr 210 ------- 2 1.0 3.1 10 16
- 0.145668 2 3 cbr 210 ------- 2 1.0 3.1 10 16
r 0.147836 2 3 cbr 210 ------- 2 1.0 3.1 10 16
+ 0.14875 1 2 cbr 210 ------- 2 1.0 3.1 13 23
- 0.14875 1 2 cbr 210 ------- 2 1.0 3.1 13 23
r 0.149418 1 2 cbr 210 ------- 2 1.0 3.1 11 17
+ 0.149418 2 3 cbr 210 ------- 2 1.0 3.1 11 17
- 0.149418 2 3 cbr 210 ------- 2 1.0 3.1 11 17
r 0.150688 0 2 tcp 1040 ------- 1 0.0 3.0 3 18
+ 0.150688 2 3 tcp 1040 ------- 1 0.0 3.0 3 18
- 0.150688 2 3 tcp 1040 ------- 1 0.0 3.0 3 18
r 0.15152 0 2 tcp 1040 ------- 1 0.0 3.0 4 19
+ 0.15152 2 3 tcp 1040 ------- 1 0.0 3.0 4 19
- 0.15152 2 3 tcp 1040 ------- 1 0.0 3.0 4 19
r 0.151586 2 3 cbr 210 ------- 2 1.0 3.1 11 17
r 0.152352 0 2 tcp 1040 ------- 1 0.0 3.0 5 20
+ 0.152352 2 3 tcp 1040 ------- 1 0.0 3.0 5 20
- 0.152352 2 3 tcp 1040 ------- 1 0.0 3.0 5 20
+ 0.1525 1 2 cbr 210 ------- 2 1.0 3.1 14 24
- 0.1525 1 2 cbr 210 ------- 2 1.0 3.1 14 24
r 0.153168 1 2 cbr 210 ------- 2 1.0 3.1 12 22
+ 0.153168 2 3 cbr 210 ------- 2 1.0 3.1 12 22
- 0.153184 2 3 cbr 210 ------- 2 1.0 3.1 12 22
r 0.15352 2 3 tcp 1040 ------- 1 0.0 3.0 3 18
+ 0.15352 3 2 ack 40 ------- 1 3.0 0.0 3 25
- 0.15352 3 2 ack 40 ------- 1 3.0 0.0 3 25
r 0.154352 2 3 tcp 1040 ------- 1 0.0 3.0 4 19
+ 0.154352 3 2 ack 40 ------- 1 3.0 0.0 4 26
- 0.154352 3 2 ack 40 ------- 1 3.0 0.0 4 26
r 0.155184 2 3 tcp 1040 ------- 1 0.0 3.0 5 20
+ 0.155184 3 2 ack 40 ------- 1 3.0 0.0 5 27
- 0.155184 3 2 ack 40 ------- 1 3.0 0.0 5 27
r 0.155352 2 3 cbr 210 ------- 2 1.0 3.1 12 22
r 0.155552 3 2 ack 40 ------- 1 3.0 0.0 3 25
+ 0.155552 2 0 ack 40 ------- 1 3.0 0.0 3 25
- 0.155552 2 0 ack 40 ------- 1 3.0 0.0 3 25
+ 0.15625 1 2 cbr 210 ------- 2 1.0 3.1 15 28
- 0.15625 1 2 cbr 210 ------- 2 1.0 3.1 15 28
r 0.156384 3 2 ack 40 ------- 1 3.0 0.0 4 26
+ 0.156384 2 0 ack 40 ------- 1 3.0 0.0 4 26
- 0.156384 2 0 ack 40 ------- 1 3.0 0.0 4 26
r 0.156918 1 2 cbr 210 ------- 2 1.0 3.1 13 23
+ 0.156918 2 3 cbr 210 ------- 2 1.0 3.1 13 23
- 0.156918 2 3 cbr 210 ------- 2 1.0 3.1 13 23
r 0.157216 3 2 ack 40 ------- 1 3.0 0.0 5 27
+ 0.157216 2 0 ack 40 ------- 1 3.0 0.0 5 27
- 0.157216 2 0 ack 40 ------- 1 3.0 0.0 5 27
r 0.159086 2 3 cbr 210 ------- 2 1.0 3.1 13 23
+ 0.16 1 2 cbr 210 ------- 2 1.0 3.1 16 29
- 0.16 1 2 cbr 210 ------- 2 1.0 3.1 16 29
r 0.160668 1 2 cbr 210 ------- 2 1.0 3.1 14 24
+ 0.160668 2 3 cbr 210 ------- 2 1.0 3.1 14 24
- 0.160668 2 3 cbr 210 ------- 2 1.0 3.1 14 24
r 0.162836 2 3 cbr 210 ------- 2 1.0 3.1 14 24
r 0.163584 2 0 ack 40 ------- 1 3.0 0.0 3 25
+ 0.163584 0 2 tcp 1040 ------- 1 0.0 3.0 7 30
- 0.163584 0 2 tcp 1040 ------- 1 0.0 3.0 7 30
+ 0.163584 0 2 tcp 1040 ------- 1 0.0 3.0 8 31
+ 0.16375 1 2 cbr 210 ------- 2 1.0 3.1 17 32
- 0.16375 1 2 cbr 210 ------- 2 1.0 3.1 17 32
r 0.164416 2 0 ack 40 ------- 1 3.0 0.0 4 26
+ 0.164416 0 2 tcp 1040 ------- 1 0.0 3.0 9 33
+ 0.164416 0 2 tcp 1040 ------- 1 0.0 3.0 10 34
d 0.164416 0 2 tcp 1040 ------- 1 0.0 3.0 10 34
- 0.164416 0 2 tcp 1040 ------- 1 0.0 3.0 8 31
r 0.164418 1 2 cbr 210 ------- 2 1.0 3.1 15 28
+ 0.164418 2 3 cbr 210 ------- 2 1.0 3.1 15 28
- 0.164418 2 3 cbr 210 ------- 2 1.0 3.1 15 28
r 0.165248 2 0 ack 40 ------- 1 3.0 0.0 5 27
+ 0.165248 0 2 tcp 1040 ------- 1 0.0 3.0 11 35
+ 0.165248 0 2 tcp 1040 ------- 1 0.0 3.0 12 36
d 0.165248 0 2 tcp 1040 ------- 1 0.0 3.0 12 36
- 0.165248 0 2 tcp 1040 ------- 1 0.0 3.0 9 33
- 0.16608 0 2 tcp 1040 ------- 1 0.0 3.0 11 35
r 0.166586 2 3 cbr 210 ------- 2 1.0 3.1 15 28
+ 0.1675 1 2 cbr 210 ------- 2 1.0 3.1 18 37
- 0.1675 1 2 cbr 210 ------- 2 1.0 3.1 18 37
r 0.168168 1 2 cbr 210 ------- 2 1.0 3.1 16 29
+ 0.168168 2 3 cbr 210 ------- 2 1.0 3.1 16 29
- 0.168168 2 3 cbr 210 ------- 2 1.0 3.1 16 29
r 0.170336 2 3 cbr 210 ------- 2 1.0 3.1 16 29
+ 0.17125 1 2 cbr 210 ------- 2 1.0 3.1 19 38
- 0.17125 1 2 cbr 210 ------- 2 1.0 3.1 19 38
r 0.171918 1 2 cbr 210 ------- 2 1.0 3.1 17 32
+ 0.171918 2 3 cbr 210 ------- 2 1.0 3.1 17 32
- 0.171918 2 3 cbr 210 ------- 2 1.0 3.1 17 32
r 0.172416 0 2 tcp 1040 ------- 1 0.0 3.0 7 30
+ 0.172416 2 3 tcp 1040 ------- 1 0.0 3.0 7 30
- 0.172416 2 3 tcp 1040 ------- 1 0.0 3.0 7 30
r 0.173248 0 2 tcp 1040 ------- 1 0.0 3.0 8 31
+ 0.173248 2 3 tcp 1040 ------- 1 0.0 3.0 8 31
- 0.173248 2 3 tcp 1040 ------- 1 0.0 3.0 8 31
r 0.17408 0 2 tcp 1040 ------- 1 0.0 3.0 9 33
+ 0.17408 2 3 tcp 1040 ------- 1 0.0 3.0 9 33
- 0.17408 2 3 tcp 1040 ------- 1 0.0 3.0 9 33
r 0.174086 2 3 cbr 210 ------- 2 1.0 3.1 17 32
r 0.174912 0 2 tcp 1040 ------- 1 0.0 3.0 11 35
+ 0.174912 2 3 tcp 1040 ------- 1 0.0 3.0 11 35
- 0.174912 2 3 tcp 1040 ------- 1 0.0 3.0 11 35
+ 0.175 1 2 cbr 210 ------- 2 1.0 3.1 20 39
- 0.175 1 2 cbr 210 ------- 2 1.0 3.1 20 39
r 0.175248 2 3 tcp 1040 ------- 1 0.0 3.0 7 30
+ 0.175248 3 2 ack 40 ------- 1 3.0 0.0 5 40
- 0.175248 3 2 ack 40 ------- 1 3.0 0.0 5 40
r 0.175668 1 2 cbr 210 ------- 2 1.0 3.1 18 37
+ 0.175668 2 3 cbr 210 ------- 2 1.0 3.1 18 37
- 0.175744 2 3 cbr 210 ------- 2 1.0 3.1 18 37
r 0.17608 2 3 tcp 1040 ------- 1 0.0 3.0 8 31
+ 0.17608 3 2 ack 40 ------- 1 3.0 0.0 5 41
- 0.17608 3 2 ack 40 ------- 1 3.0 0.0 5 41
r 0.176912 2 3 tcp 1040 ------- 1 0.0 3.0 9 33
+ 0.176912 3 2 ack 40 ------- 1 3.0 0.0 5 42
- 0.176912 3 2 ack 40 ------- 1 3.0 0.0 5 42
r 0.17728 3 2 ack 40 ------- 1 3.0 0.0 5 40
+ 0.17728 2 0 ack 40 ------- 1 3.0 0.0 5 40
- 0.17728 2 0 ack 40 ------- 1 3.0 0.0 5 40
r 0.177744 2 3 tcp 1040 ------- 1 0.0 3.0 11 35
+ 0.177744 3 2 ack 40 ------- 1 3.0 0.0 5 43
- 0.177744 3 2 ack 40 ------- 1 3.0 0.0 5 43
r 0.177912 2 3 cbr 210 ------- 2 1.0 3.1 18 37
r 0.178112 3 2 ack 40 ------- 1 3.0 0.0 5 41
+ 0.178112 2 0 ack 40 ------- 1 3.0 0.0 5 41
- 0.178112 2 0 ack 40 ------- 1 3.0 0.0 5 41
+ 0.17875 1 2 cbr 210 ------- 2 1.0 3.1 21 44
- 0.17875 1 2 cbr 210 ------- 2 1.0 3.1 21 44
r 0.178944 3 2 ack 40 ------- 1 3.0 0.0 5 42
+ 0.178944 2 0 ack 40 ------- 1 3.0 0.0 5 42
- 0.178944 2 0 ack 40 ------- 1 3.0 0.0 5 42
r 0.179418 1 2 cbr 210 ------- 2 1.0 3.1 19 38
+ 0.179418 2 3 cbr 210 ------- 2 1.0 3.1 19 38
- 0.179418 2 3 cbr 210 ------- 2 1.0 3.1 19 38
r 0.179776 3 2 ack 40 ------- 1 3.0 0.0 5 43
+ 0.179776 2 0 ack 40 ------- 1 3.0 0.0 5 43
- 0.179776 2 0 ack 40 ------- 1 3.0 0.0 5 43
r 0.181586 2 3 cbr 210 ------- 2 1.0 3.1 19 38
+ 0.1825 1 2 cbr 210 ------- 2 1.0 3.1 22 45
- 0.1825 1 2 cbr 210 ------- 2 1.0 3.1 22 45
r 0.183168 1 2 cbr 210 ------- 2 1.0 3.1 20 39
+ 0.183168 2 3 cbr 210 ------- 2 1.0 3.1 20 39
- 0.183168 2 3 cbr 210 ------- 2 1.0 3.1 20 39
r 0.185312 2 0 ack 40 ------- 1 3.0 0.0 5 40
+ 0.185312 0 2 tcp 1040 ------- 1 0.0 3.0 13 46
- 0.185312 0 2 tcp 1040 ------- 1 0.0 3.0 13 46
r 0.185336 2 3 cbr 210 ------- 2 1.0 3.1 20 39
r 0.186144 2 0 ack 40 ------- 1 3.0 0.0 5 41
+ 0.186144 0 2 tcp 1040 ------- 1 0.0 3.0 14 47
- 0.186144 0 2 tcp 1040 ------- 1 0.0 3.0 14 47
+ 0.18625 1 2 cbr 210 ------- 2 1.0 3.1 23 48
- 0.18625 1 2 cbr 210 ------- 2 1.0 3.1 23 48
r 0.186918 1 2 cbr 210 ------- 2 1.0 3.1 21 44
+ 0.186918 2 3 cbr 210 ------- 2 1.0 3.1 21 44
- 0.186918 2 3 cbr 210 ------- 2 1.0 3.1 21 44
r 0.186976 2 0 ack 40 ------- 1 3.0 0.0 5 42
+ 0.186976 0 2 tcp 1040 ---A--- 1 0.0 3.0 6 49
- 0.186976 0 2 tcp 1040 ---A--- 1 0.0 3.0 6 49
r 0.187808 2 0 ack 40 ------- 1 3.0 0.0 5 43
r 0.189086 2 3 cbr 210 ------- 2 1.0 3.1 21 44
+ 0.19 1 2 cbr 210 ------- 2 1.0 3.1 24 50
- 0.19 1 2 cbr 210 ------- 2 1.0 3.1 24 50
r 0.190668 1 2 cbr 210 ------- 2 1.0 3.1 22 45
+ 0.190668 2 3 cbr 210 ------- 2 1.0 3.1 22 45
- 0.190668 2 3 cbr 210 ------- 2 1.0 3.1 22 45
r 0.192836 2 3 cbr 210 ------- 2 1.0 3.1 22 45
+ 0.19375 1 2 cbr 210 ------- 2 1.0 3.1 25 51
- 0.19375 1 2 cbr 210 ------- 2 1.0 3.1 25 51
r 0.194144 0 2 tcp 1040 ------- 1 0.0 3.0 13 46
+ 0.194144 2 3 tcp 1040 ------- 1 0.0 3.0 13 46
- 0.194144 2 3 tcp 1040 ------- 1 0.0 3.0 13 46
r 0.194418 1 2 cbr 210 ------- 2 1.0 3.1 23 48
+ 0.194418 2 3 cbr 210 ------- 2 1.0 3.1 23 48
r 0.194976 0 2 tcp 1040 ------- 1 0.0 3.0 14 47
+ 0.194976 2 3 tcp 1040 ------- 1 0.0 3.0 14 47
- 0.194976 2 3 cbr 210 ------- 2 1.0 3.1 23 48
- 0.195144 2 3 tcp 1040 ------- 1 0.0 3.0 14 47
r 0.195808 0 2 tcp 1040 ---A--- 1 0.0 3.0 6 49
+ 0.195808 2 3 tcp 1040 ---A--- 1 0.0 3.0 6 49
- 0.195976 2 3 tcp 1040 ---A--- 1 0.0 3.0 6 49
r 0.196976 2 3 tcp 1040 ------- 1 0.0 3.0 13 46
+ 0.196976 3 2 ack 40 ------- 1 3.0 0.0 5 52
- 0.196976 3 2 ack 40 ------- 1 3.0 0.0 5 52
r 0.197144 2 3 cbr 210 ------- 2 1.0 3.1 23 48
+ 0.1975 1 2 cbr 210 ------- 2 1.0 3.1 26 53
- 0.1975 1 2 cbr 210 ------- 2 1.0 3.1 26 53
r 0.197976 2 3 tcp 1040 ------- 1 0.0 3.0 14 47
+ 0.197976 3 2 ack 40 ------- 1 3.0 0.0 5 54
- 0.197976 3 2 ack 40 ------- 1 3.0 0.0 5 54
r 0.198168 1 2 cbr 210 ------- 2 1.0 3.1 24 50
+ 0.198168 2 3 cbr 210 ------- 2 1.0 3.1 24 50
- 0.198168 2 3 cbr 210 ------- 2 1.0 3.1 24 50
r 0.198808 2 3 tcp 1040 ---A--- 1 0.0 3.0 6 49
+ 0.198808 3 2 ack 40 ------- 1 3.0 0.0 9 55
- 0.198808 3 2 ack 40 ------- 1 3.0 0.0 9 55
r 0.199008 3 2 ack 40 ------- 1 3.0 0.0 5 52
+ 0.199008 2 0 ack 40 ------- 1 3.0 0.0 5 52
- 0.199008 2 0 ack 40 ------- 1 3.0 0.0 5 52
r 0.200008 3 2 ack 40 ------- 1 3.0 0.0 5 54
+ 0.200008 2 0 ack 40 ------- 1 3.0 0.0 5 54
- 0.200008 2 0 ack 40 ------- 1 3.0 0.0 5 54
r 0.200336 2 3 cbr 210 ------- 2 1.0 3.1 24 50
r 0.20084 3 2 ack 40 ------- 1 3.0 0.0 9 55
+ 0.20084 2 0 ack 40 ------- 1 3.0 0.0 9 55
- 0.20084 2 0 ack 40 ------- 1 3.0 0.0 9 55
+ 0.20125 1 2 cbr 210 ------- 2 1.0 3.1 27 56
- 0.20125 1 2 cbr 210 ------- 2 1.0 3.1 27 56
r 0.201918 1 2 cbr 210 ------- 2 1.0 3.1 25 51
+ 0.201918 2 3 cbr 210 ------- 2 1.0 3.1 25 51
- 0.201918 2 3 cbr 210 ------- 2 1.0 3.1 25 51
r 0.204086 2 3 cbr 210 ------- 2 1.0 3.1 25 51
+ 0.205 1 2 cbr 210 ------- 2 1.0 3.1 28 57
- 0.205 1 2 cbr 210 ------- 2 1.0 3.1 28 57
r 0.205668 1 2 cbr 210 ------- 2 1.0 3.1 26 53
+ 0.205668 2 3 cbr 210 ------- 2 1.0 3.1 26 53
- 0.205668 2 3 cbr 210 ------- 2 1.0 3.1 26 53
r 0.20704 2 0 ack 40 ------- 1 3.0 0.0 5 52
r 0.207836 2 3 cbr 210 ------- 2 1.0 3.1 26 53
r 0.20804 2 0 ack 40 ------- 1 3.0 0.0 5 54
+ 0.20875 1 2 cbr 210 ------- 2 1.0 3.1 29 58
- 0.20875 1 2 cbr 210 ------- 2 1.0 3.1 29 58
r 0.208872 2 0 ack 40 ------- 1 3.0 0.0 9 55
+ 0.208872 0 2 tcp 1040 ------- 1 0.0 3.0 10 59
- 0.208872 0 2 tcp 1040 ------- 1 0.0 3.0 10 59
+ 0.208872 0 2 tcp 1040 ------- 1 0.0 3.0 11 60
r 0.209418 1 2 cbr 210 ------- 2 1.0 3.1 27 56
+ 0.209418 2 3 cbr 210 ------- 2 1.0 3.1 27 56
- 0.209418 2 3 cbr 210 ------- 2 1.0 3.1 27 56
- 0.209704 0 2 tcp 1040 ------- 1 0.0 3.0 11 60
r 0.211586 2 3 cbr 210 ------- 2 1.0 3.1 27 56
+ 0.2125 1 2 cbr 210 ------- 2 1.0 3.1 30 61
- 0.2125 1 2 cbr 210 ------- 2 1.0 3.1 30 61
r 0.213168 1 2 cbr 210 ------- 2 1.0 3.1 28 57
+ 0.213168 2 3 cbr 210 ------- 2 1.0 3.1 28 57
- 0.213168 2 3 cbr 210 ------- 2 1.0 3.1 28 57
r 0.215336 2 3 cbr 210 ------- 2 1.0 3.1 28 57
+ 0.21625 1 2 cbr 210 ------- 2 1.0 3.1 31 62
- 0.21625 1 2 cbr 210 ------- 2 1.0 3.1 31 62
r 0.216918 1 2 cbr 210 ------- 2 1.0 3.1 29 58
+ 0.216918 2 3 cbr 210 ------- 2 1.0 3.1 29 58
- 0.216918 2 3 cbr 210 ------- 2 1.0 3.1 29 58
r 0.217704 0 2 tcp 1040 ------- 1 0.0 3.0 10 59
+ 0.217704 2 3 tcp 1040 ------- 1 0.0 3.0 10 59
- 0.217704 2 3 tcp 1040 ------- 1 0.0 3.0 10 59
r 0.218536 0 2 tcp 1040 ------- 1 0.0 3.0 11 60
+ 0.218536 2 3 tcp 1040 ------- 1 0.0 3.0 11 60
- 0.218536 2 3 tcp 1040 ------- 1 0.0 3.0 11 60
r 0.219086 2 3 cbr 210 ------- 2 1.0 3.1 29 58
+ 0.22 1 2 cbr 210 ------- 2 1.0 3.1 32 63
- 0.22 1 2 cbr 210 ------- 2 1.0 3.1 32 63
r 0.220536 2 3 tcp 1040 ------- 1 0.0 3.0 10 59
+ 0.220536 3 2 ack 40 ------- 1 3.0 0.0 11 64
- 0.220536 3 2 ack 40 ------- 1 3.0 0.0 11 64
r 0.220668 1 2 cbr 210 ------- 2 1.0 3.1 30 61
+ 0.220668 2 3 cbr 210 ------- 2 1.0 3.1 30 61
- 0.220668 2 3 cbr 210 ------- 2 1.0 3.1 30 61
r 0.221368 2 3 tcp 1040 ------- 1 0.0 3.0 11 60
+ 0.221368 3 2 ack 40 ------- 1 3.0 0.0 11 65
- 0.221368 3 2 ack 40 ------- 1 3.0 0.0 11 65
r 0.222568 3 2 ack 40 ------- 1 3.0 0.0 11 64
+ 0.222568 2 0 ack 40 ------- 1 3.0 0.0 11 64
- 0.222568 2 0 ack 40 ------- 1 3.0 0.0 11 64
r 0.222836 2 3 cbr 210 ------- 2 1.0 3.1 30 61
r 0.2234 3 2 ack 40 ------- 1 3.0 0.0 11 65
+ 0.2234 2 0 ack 40 ------- 1 3.0 0.0 11 65
- 0.2234 2 0 ack 40 ------- 1 3.0 0.0 11 65
+ 0.22375 1 2 cbr 210 ------- 2 1.0 3.1 33 66
- 0.22375 1 2 cbr 210 ------- 2 1.0 3.1 33 66
r 0.224418 1 2 cbr 210 ------- 2 1.0 3.1 31 62
+ 0.224418 2 3 cbr 210 ------- 2 1.0 3.1 31 62
- 0.224418 2 3 cbr 210 ------- 2 1.0 3.1 31 62
r 0.226586 2 3 cbr 210 ------- 2 1.0 3.1 31 62
+ 0.2275 1 2 cbr 210 ------- 2 1.0 3.1 34 67
- 0.2275 1 2 cbr 210 ------- 2 1.0 3.1 34 67
r 0.228168 1 2 cbr 210 ------- 2 1.0 3.1 32 63
+ 0.228168 2 3 cbr 210 ------- 2 1.0 3.1 32 63
- 0.228168 2 3 cbr 210 ------- 2 1.0 3.1 32 63
r 0.230336 2 3 cbr 210 ------- 2 1.0 3.1 32 63
r 0.2306 2 0 ack 40 ------- 1 3.0 0.0 11 64
+ 0.2306 0 2 tcp 1040 ------- 1 0.0 3.0 12 68
- 0.2306 0 2 tcp 1040 ------- 1 0.0 3.0 12 68
+ 0.2306 0 2 tcp 1040 ------- 1 0.0 3.0 13 69
+ 0.2306 0 2 tcp 1040 ------- 1 0.0 3.0 14 70
+ 0.23125 1 2 cbr 210 ------- 2 1.0 3.1 35 71
- 0.23125 1 2 cbr 210 ------- 2 1.0 3.1 35 71
r 0.231432 2 0 ack 40 ------- 1 3.0 0.0 11 65
+ 0.231432 0 2 tcp 1040 ------- 1 0.0 3.0 15 72
d 0.231432 0 2 tcp 1040 ------- 1 0.0 3.0 15 72
- 0.231432 0 2 tcp 1040 ------- 1 0.0 3.0 13 69
r 0.231918 1 2 cbr 210 ------- 2 1.0 3.1 33 66
+ 0.231918 2 3 cbr 210 ------- 2 1.0 3.1 33 66
- 0.231918 2 3 cbr 210 ------- 2 1.0 3.1 33 66
- 0.232264 0 2 tcp 1040 ------- 1 0.0 3.0 14 70
r 0.234086 2 3 cbr 210 ------- 2 1.0 3.1 33 66
+ 0.235 1 2 cbr 210 ------- 2 1.0 3.1 36 73
- 0.235 1 2 cbr 210 ------- 2 1.0 3.1 36 73
r 0.235668 1 2 cbr 210 ------- 2 1.0 3.1 34 67
+ 0.235668 2 3 cbr 210 ------- 2 1.0 3.1 34 67
- 0.235668 2 3 cbr 210 ------- 2 1.0 3.1 34 67
r 0.237836 2 3 cbr 210 ------- 2 1.0 3.1 34 67
+ 0.23875 1 2 cbr 210 ------- 2 1.0 3.1 37 74
- 0.23875 1 2 cbr 210 ------- 2 1.0 3.1 37 74
r 0.239418 1 2 cbr 210 ------- 2 1.0 3.1 35 71
+ 0.239418 2 3 cbr 210 ------- 2 1.0 3.1 35 71
- 0.239418 2 3 cbr 210 ------- 2 1.0 3.1 35 71
r 0.239432 0 2 tcp 1040 ------- 1 0.0 3.0 12 68
+ 0.239432 2 3 tcp 1040 ------- 1 0.0 3.0 12 68
- 0.239586 2 3 tcp 1040 ------- 1 0.0 3.0 12 68
r 0.240264 0 2 tcp 1040 ------- 1 0.0 3.0 13 69
+ 0.240264 2 3 tcp 1040 ------- 1 0.0 3.0 13 69
- 0.240418 2 3 tcp 1040 ------- 1 0.0 3.0 13 69
r 0.241096 0 2 tcp 1040 ------- 1 0.0 3.0 14 70
+ 0.241096 2 3 tcp 1040 ------- 1 0.0 3.0 14 70
- 0.24125 2 3 tcp 1040 ------- 1 0.0 3.0 14 70
r 0.241586 2 3 cbr 210 ------- 2 1.0 3.1 35 71
r 0.242418 2 3 tcp 1040 ------- 1 0.0 3.0 12 68
+ 0.242418 3 2 ack 40 ------- 1 3.0 0.0 14 75
- 0.242418 3 2 ack 40 ------- 1 3.0 0.0 14 75
+ 0.2425 1 2 cbr 210 ------- 2 1.0 3.1 38 76
- 0.2425 1 2 cbr 210 ------- 2 1.0 3.1 38 76
r 0.243168 1 2 cbr 210 ------- 2 1.0 3.1 36 73
+ 0.243168 2 3 cbr 210 ------- 2 1.0 3.1 36 73
- 0.243168 2 3 cbr 210 ------- 2 1.0 3.1 36 73
r 0.24325 2 3 tcp 1040 ------- 1 0.0 3.0 13 69
+ 0.24325 3 2 ack 40 ------- 1 3.0 0.0 14 77
- 0.24325 3 2 ack 40 ------- 1 3.0 0.0 14 77
r 0.244082 2 3 tcp 1040 ------- 1 0.0 3.0 14 70
+ 0.244082 3 2 ack 40 ------- 1 3.0 0.0 14 78
- 0.244082 3 2 ack 40 ------- 1 3.0 0.0 14 78
r 0.24445 3 2 ack 40 ------- 1 3.0 0.0 14 75
+ 0.24445 2 0 ack 40 ------- 1 3.0 0.0 14 75
- 0.24445 2 0 ack 40 ------- 1 3.0 0.0 14 75
r 0.245282 3 2 ack 40 ------- 1 3.0 0.0 14 77
+ 0.245282 2 0 ack 40 ------- 1 3.0 0.0 14 77
- 0.245282 2 0 ack 40 ------- 1 3.0 0.0 14 77
r 0.245336 2 3 cbr 210 ------- 2 1.0 3.1 36 73
r 0.246114 3 2 ack 40 ------- 1 3.0 0.0 14 78
+ 0.246114 2 0 ack 40 ------- 1 3.0 0.0 14 78
- 0.246114 2 0 ack 40 ------- 1 3.0 0.0 14 78
+ 0.24625 1 2 cbr 210 ------- 2 1.0 3.1 39 79
- 0.24625 1 2 cbr 210 ------- 2 1.0 3.1 39 79
r 0.246918 1 2 cbr 210 ------- 2 1.0 3.1 37 74
+ 0.246918 2 3 cbr 210 ------- 2 1.0 3.1 37 74
- 0.246918 2 3 cbr 210 ------- 2 1.0 3.1 37 74
r 0.249086 2 3 cbr 210 ------- 2 1.0 3.1 37 74
+ 0.25 1 2 cbr 210 ------- 2 1.0 3.1 40 80
- 0.25 1 2 cbr 210 ------- 2 1.0 3.1 40 80
r 0.250668 1 2 cbr 210 ------- 2 1.0 3.1 38 76
+ 0.250668 2 3 cbr 210 ------- 2 1.0 3.1 38 76
- 0.250668 2 3 cbr 210 ------- 2 1.0 3.1 38 76
r 0.252482 2 0 ack 40 ------- 1 3.0 0.0 14 75
+ 0.252482 0 2 tcp 1040 ------- 1 0.0 3.0 16 81
- 0.252482 0 2 tcp 1040 ------- 1 0.0 3.0 16 81
+ 0.252482 0 2 tcp 1040 ------- 1 0.0 3.0 17 82
r 0.252836 2 3 cbr 210 ------- 2 1.0 3.1 38 76
r 0.253314 2 0 ack 40 ------- 1 3.0 0.0 14 77
+ 0.253314 0 2 tcp 1040 ------- 1 0.0 3.0 18 83
- 0.253314 0 2 tcp 1040 ------- 1 0.0 3.0 17 82
+ 0.25375 1 2 cbr 210 ------- 2 1.0 3.1 41 84
- 0.25375 1 2 cbr 210 ------- 2 1.0 3.1 41 84
r 0.254146 2 0 ack 40 ------- 1 3.0 0.0 14 78
+ 0.254146 0 2 tcp 1040 ------- 1 0.0 3.0 19 85
- 0.254146 0 2 tcp 1040 ------- 1 0.0 3.0 18 83
r 0.254418 1 2 cbr 210 ------- 2 1.0 3.1 39 79
+ 0.254418 2 3 cbr 210 ------- 2 1.0 3.1 39 79
- 0.254418 2 3 cbr 210 ------- 2 1.0 3.1 39 79
- 0.254978 0 2 tcp 1040 ------- 1 0.0 3.0 19 85
r 0.256586 2 3 cbr 210 ------- 2 1.0 3.1 39 79
+ 0.2575 1 2 cbr 210 ------- 2 1.0 3.1 42 86
- 0.2575 1 2 cbr 210 ------- 2 1.0 3.1 42 86
r 0.258168 1 2 cbr 210 ------- 2 1.0 3.1 40 80
+ 0.258168 2 3 cbr 210 ------- 2 1.0 3.1 40 80
- 0.258168 2 3 cbr 210 ------- 2 1.0 3.1 40 80
r 0.260336 2 3 cbr 210 ------- 2 1.0 3.1 40 80
+ 0.26125 1 2 cbr 210 ------- 2 1.0 3.1 43 87
- 0.26125 1 2 cbr 210 ------- 2 1.0 3.1 43 87
r 0.261314 0 2 tcp 1040 ------- 1 0.0 3.0 16 81
+ 0.261314 2 3 tcp 1040 ------- 1 0.0 3.0 16 81
- 0.261314 2 3 tcp 1040 ------- 1 0.0 3.0 16 81
r 0.261918 1 2 cbr 210 ------- 2 1.0 3.1 41 84
+ 0.261918 2 3 cbr 210 ------- 2 1.0 3.1 41 84
r 0.262146 0 2 tcp 1040 ------- 1 0.0 3.0 17 82
+ 0.262146 2 3 tcp 1040 ------- 1 0.0 3.0 17 82
- 0.262146 2 3 cbr 210 ------- 2 1.0 3.1 41 84
- 0.262314 2 3 tcp 1040 ------- 1 0.0 3.0 17 82
r 0.262978 0 2 tcp 1040 ------- 1 0.0 3.0 18 83
+ 0.262978 2 3 tcp 1040 ------- 1 0.0 3.0 18 83
- 0.263146 2 3 tcp 1040 ------- 1 0.0 3.0 18 83
r 0.26381 0 2 tcp 1040 ------- 1 0.0 3.0 19 85
+ 0.26381 2 3 tcp 1040 ------- 1 0.0 3.0 19 85
- 0.263978 2 3 tcp 1040 ------- 1 0.0 3.0 19 85
r 0.264146 2 3 tcp 1040 ------- 1 0.0 3.0 16 81
+ 0.264146 3 2 ack 40 ------- 1 3.0 0.0 14 88
- 0.264146 3 2 ack 40 ------- 1 3.0 0.0 14 88
r 0.264314 2 3 cbr 210 ------- 2 1.0 3.1 41 84
+ 0.265 1 2 cbr 210 ------- 2 1.0 3.1 44 89
- 0.265 1 2 cbr 210 ------- 2 1.0 3.1 44 89
r 0.265146 2 3 tcp 1040 ------- 1 0.0 3.0 17 82
+ 0.265146 3 2 ack 40 ------- 1 3.0 0.0 14 90
- 0.265146 3 2 ack 40 ------- 1 3.0 0.0 14 90
r 0.265668 1 2 cbr 210 ------- 2 1.0 3.1 42 86
+ 0.265668 2 3 cbr 210 ------- 2 1.0 3.1 42 86
- 0.265668 2 3 cbr 210 ------- 2 1.0 3.1 42 86
r 0.265978 2 3 tcp 1040 ------- 1 0.0 3.0 18 83
+ 0.265978 3 2 ack 40 ------- 1 3.0 0.0 14 91
- 0.265978 3 2 ack 40 ------- 1 3.0 0.0 14 91
r 0.266178 3 2 ack 40 ------- 1 3.0 0.0 14 88
+ 0.266178 2 0 ack 40 ------- 1 3.0 0.0 14 88
- 0.266178 2 0 ack 40 ------- 1 3.0 0.0 14 88
r 0.26681 2 3 tcp 1040 ------- 1 0.0 3.0 19 85
+ 0.26681 3 2 ack 40 ------- 1 3.0 0.0 14 92
- 0.26681 3 2 ack 40 ------- 1 3.0 0.0 14 92
r 0.267178 3 2 ack 40 ------- 1 3.0 0.0 14 90
+ 0.267178 2 0 ack 40 ------- 1 3.0 0.0 14 90
- 0.267178 2 0 ack 40 ------- 1 3.0 0.0 14 90
r 0.267836 2 3 cbr 210 ------- 2 1.0 3.1 42 86
r 0.26801 3 2 ack 40 ------- 1 3.0 0.0 14 91
+ 0.26801 2 0 ack 40 ------- 1 3.0 0.0 14 91
- 0.26801 2 0 ack 40 ------- 1 3.0 0.0 14 91
+ 0.26875 1 2 cbr 210 ------- 2 1.0 3.1 45 93
- 0.26875 1 2 cbr 210 ------- 2 1.0 3.1 45 93
r 0.268842 3 2 ack 40 ------- 1 3.0 0.0 14 92
+ 0.268842 2 0 ack 40 ------- 1 3.0 0.0 14 92
- 0.268842 2 0 ack 40 ------- 1 3.0 0.0 14 92
r 0.269418 1 2 cbr 210 ------- 2 1.0 3.1 43 87
+ 0.269418 2 3 cbr 210 ------- 2 1.0 3.1 43 87
- 0.269418 2 3 cbr 210 ------- 2 1.0 3.1 43 87
r 0.271586 2 3 cbr 210 ------- 2 1.0 3.1 43 87
+ 0.2725 1 2 cbr 210 ------- 2 1.0 3.1 46 94
- 0.2725 1 2 cbr 210 ------- 2 1.0 3.1 46 94
r 0.273168 1 2 cbr 210 ------- 2 1.0 3.1 44 89
+ 0.273168 2 3 cbr 210 ------- 2 1.0 3.1 44 89
- 0.273168 2 3 cbr 210 ------- 2 1.0 3.1 44 89
r 0.27421 2 0 ack 40 ------- 1 3.0 0.0 14 88
r 0.27521 2 0 ack 40 ------- 1 3.0 0.0 14 90
r 0.275336 2 3 cbr 210 ------- 2 1.0 3.1 44 89
r 0.276042 2 0 ack 40 ------- 1 3.0 0.0 14 91
+ 0.27625 1 2 cbr 210 ------- 2 1.0 3.1 47 95
- 0.27625 1 2 cbr 210 ------- 2 1.0 3.1 47 95
r 0.276874 2 0 ack 40 ------- 1 3.0 0.0 14 92
r 0.276918 1 2 cbr 210 ------- 2 1.0 3.1 45 93
+ 0.276918 2 3 cbr 210 ------- 2 1.0 3.1 45 93
- 0.276918 2 3 cbr 210 ------- 2 1.0 3.1 45 93
r 0.279086 2 3 cbr 210 ------- 2 1.0 3.1 45 93
+ 0.28 1 2 cbr 210 ------- 2 1.0 3.1 48 96
- 0.28 1 2 cbr 210 ------- 2 1.0 3.1 48 96
r 0.280668 1 2 cbr 210 ------- 2 1.0 3.1 46 94
+ 0.280668 2 3 cbr 210 ------- 2 1.0 3.1 46 94
- 0.280668 2 3 cbr 210 ------- 2 1.0 3.1 46 94
r 0.282836 2 3 cbr 210 ------- 2 1.0 3.1 46 94
+ 0.28375 1 2 cbr 210 ------- 2 1.0 3.1 49 97
- 0.28375 1 2 cbr 210 ------- 2 1.0 3.1 49 97
r 0.284418 1 2 cbr 210 ------- 2 1.0 3.1 47 95
+ 0.284418 2 3 cbr 210 ------- 2 1.0 3.1 47 95
- 0.284418 2 3 cbr 210 ------- 2 1.0 3.1 47 95
r 0.286586 2 3 cbr 210 ------- 2 1.0 3.1 47 95
+ 0.2875 1 2 cbr 210 ------- 2 1.0 3.1 50 98
- 0.2875 1 2 cbr 210 ------- 2 1.0 3.1 50 98
r 0.288168 1 2 cbr 210 ------- 2 1.0 3.1 48 96
+ 0.288168 2 3 cbr 210 ------- 2 1.0 3.1 48 96
- 0.288168 2 3 cbr 210 ------- 2 1.0 3.1 48 96
r 0.290336 2 3 cbr 210 ------- 2 1.0 3.1 48 96
+ 0.29125 1 2 cbr 210 ------- 2 1.0 3.1 51 99
- 0.29125 1 2 cbr 210 ------- 2 1.0 3.1 51 99
r 0.291918 1 2 cbr 210 ------- 2 1.0 3.1 49 97
+ 0.291918 2 3 cbr 210 ------- 2 1.0 3.1 49 97
- 0.291918 2 3 cbr 210 ------- 2 1.0 3.1 49 97
r 0.294086 2 3 cbr 210 ------- 2 1.0 3.1 49 97
+ 0.295 1 2 cbr 210 ------- 2 1.0 3.1 52 100
- 0.295 1 2 cbr 210 ------- 2 1.0 3.1 52 100
r 0.295668 1 2 cbr 210 ------- 2 1.0 3.1 50 98
+ 0.295668 2 3 cbr 210 ------- 2 1.0 3.1 50 98
- 0.295668 2 3 cbr 210 ------- 2 1.0 3.1 50 98
r 0.297836 2 3 cbr 210 ------- 2 1.0 3.1 50 98
+ 0.29875 1 2 cbr 210 ------- 2 1.0 3.1 53 101
- 0.29875 1 2 cbr 210 ------- 2 1.0 3.1 53 101
r 0.299418 1 2 cbr 210 ------- 2 1.0 3.1 51 99
+ 0.299418 2 3 cbr 210 ------- 2 1.0 3.1 51 99
- 0.299418 2 3 cbr 210 ------- 2 1.0 3.1 51 99
r 0.301586 2 3 cbr 210 ------- 2 1.0 3.1 51 99
+ 0.3025 1 2 cbr 210 ------- 2 1.0 3.1 54 102
- 0.3025 1 2 cbr 210 ------- 2 1.0 3.1 54 102
r 0.303168 1 2 cbr 210 ------- 2 1.0 3.1 52 100
+ 0.303168 2 3 cbr 210 ------- 2 1.0 3.1 52 100
- 0.303168 2 3 cbr 210 ------- 2 1.0 3.1 52 100
r 0.305336 2 3 cbr 210 ------- 2 1.0 3.1 52 100
+ 0.30625 1 2 cbr 210 ------- 2 1.0 3.1 55 103
- 0.30625 1 2 cbr 210 ------- 2 1.0 3.1 55 103
r 0.306918 1 2 cbr 210 ------- 2 1.0 3.1 53 101
+ 0.306918 2 3 cbr 210 ------- 2 1.0 3.1 53 101
- 0.306918 2 3 cbr 210 ------- 2 1.0 3.1 53 101
r 0.309086 2 3 cbr 210 ------- 2 1.0 3.1 53 101
+ 0.31 1 2 cbr 210 ------- 2 1.0 3.1 56 104
- 0.31 1 2 cbr 210 ------- 2 1.0 3.1 56 104
r 0.310668 1 2 cbr 210 ------- 2 1.0 3.1 54 102
+ 0.310668 2 3 cbr 210 ------- 2 1.0 3.1 54 102
- 0.310668 2 3 cbr 210 ------- 2 1.0 3.1 54 102
r 0.312836 2 3 cbr 210 ------- 2 1.0 3.1 54 102
+ 0.31375 1 2 cbr 210 ------- 2 1.0 3.1 57 105
- 0.31375 1 2 cbr 210 ------- 2 1.0 3.1 57 105
r 0.314418 1 2 cbr 210 ------- 2 1.0 3.1 55 103
+ 0.314418 2 3 cbr 210 ------- 2 1.0 3.1 55 103
- 0.314418 2 3 cbr 210 ------- 2 1.0 3.1 55 103
r 0.316586 2 3 cbr 210 ------- 2 1.0 3.1 55 103
+ 0.3175 1 2 cbr 210 ------- 2 1.0 3.1 58 106
- 0.3175 1 2 cbr 210 ------- 2 1.0 3.1 58 106
r 0.318168 1 2 cbr 210 ------- 2 1.0 3.1 56 104
+ 0.318168 2 3 cbr 210 ------- 2 1.0 3.1 56 104
- 0.318168 2 3 cbr 210 ------- 2 1.0 3.1 56 104
r 0.320336 2 3 cbr 210 ------- 2 1.0 3.1 56 104
+ 0.32125 1 2 cbr 210 ------- 2 1.0 3.1 59 107
- 0.32125 1 2 cbr 210 ------- 2 1.0 3.1 59 107
r 0.321918 1 2 cbr 210 ------- 2 1.0 3.1 57 105
+ 0.321918 2 3 cbr 210 ------- 2 1.0 3.1 57 105
- 0.321918 2 3 cbr 210 ------- 2 1.0 3.1 57 105
r 0.324086 2 3 cbr 210 ------- 2 1.0 3.1 57 105
+ 0.325 1 2 cbr 210 ------- 2 1.0 3.1 60 108
- 0.325 1 2 cbr 210 ------- 2 1.0 3.1 60 108
r 0.325668 1 2 cbr 210 ------- 2 1.0 3.1 58 106
+ 0.325668 2 3 cbr 210 ------- 2 1.0 3.1 58 106
- 0.325668 2 3 cbr 210 ------- 2 1.0 3.1 58 106
r 0.327836 2 3 cbr 210 ------- 2 1.0 3.1 58 106
+ 0.32875 1 2 cbr 210 ------- 2 1.0 3.1 61 109
- 0.32875 1 2 cbr 210 ------- 2 1.0 3.1 61 109
r 0.329418 1 2 cbr 210 ------- 2 1.0 3.1 59 107
+ 0.329418 2 3 cbr 210 ------- 2 1.0 3.1 59 107
- 0.329418 2 3 cbr 210 ------- 2 1.0 3.1 59 107
r 0.331586 2 3 cbr 210 ------- 2 1.0 3.1 59 107
+ 0.3325 1 2 cbr 210 ------- 2 1.0 3.1 62 110
- 0.3325 1 2 cbr 210 ------- 2 1.0 3.1 62 110
r 0.333168 1 2 cbr 210 ------- 2 1.0 3.1 60 108
+ 0.333168 2 3 cbr 210 ------- 2 1.0 3.1 60 108
- 0.333168 2 3 cbr 210 ------- 2 1.0 3.1 60 108
r 0.335336 2 3 cbr 210 ------- 2 1.0 3.1 60 108
+ 0.33625 1 2 cbr 210 ------- 2 1.0 3.1 63 111
- 0.33625 1 2 cbr 210 ------- 2 1.0 3.1 63 111
r 0.336918 1 2 cbr 210 ------- 2 1.0 3.1 61 109
+ 0.336918 2 3 cbr 210 ------- 2 1.0 3.1 61 109
- 0.336918 2 3 cbr 210 ------- 2 1.0 3.1 61 109
r 0.339086 2 3 cbr 210 ------- 2 1.0 3.1 61 109
+ 0.34 1 2 cbr 210 ------- 2 1.0 3.1 64 112